# vtk DataFile Version 3.0
Octree field file
ASCII
DATASET UNSTRUCTURED_GRID
POINTS 5 float
0.1 0.1 0.1
0.2 0.2 0.2
0.3 0.3 0.3
0.4 0.4 0.4
0.5 0.5 0.5

CELLS 5 10
1 0
1 1
1 2
1 3
1 4

CELL_TYPES 5
1 
1 
1 
1 
1 

CELL_DATA 5
SCALARS scalars float
LOOKUP_TABLE default
1
2
3
4
5
